19
	Energy:       0.2840777
C         -8.26437        2.32354        0.16520
C         -6.73559        2.36342        0.10340
H         -8.70227        2.29041       -0.83831
H         -8.65673        3.20856        0.67734
H         -8.60895        1.44139        0.71516
C         -6.28066        3.63435       -0.61548
C         -6.20674        1.08669       -0.57288
H         -6.35857        2.39831        1.13343
H         -6.58126        3.62408       -1.66863
H         -5.19346        3.74946       -0.57176
H         -6.71933        4.52261       -0.14797
H         -6.55402        1.03893       -1.61229
H         -6.62404        0.21056       -0.06094
C         -4.68935        0.96924       -0.54940
H         -4.21633        1.74300       -1.16086
H         -4.38257       -0.00177       -0.95158
H         -4.30459        1.04906        0.47214
C         -6.50777        2.09695       -7.24462
N         -7.03539        2.16187       -8.22285
